# vtk DataFile Version 2.0
ASCII
DATASET UNSTRUCTURED_GRID
POINTS 441 float
 0 0 0
 0.1 0 0
 0.2 0 0
 0 0.1 0
 0.1 0.1 0
 0.2 0.1 0
 0 0.2 0
 0.1 0.2 0
 0.2 0.2 0
 0.3 0 0
 0.4 0 0
 0.3 0.1 0
 0.4 0.1 0
 0.3 0.2 0
 0.4 0.2 0
 0 0.3 0
 0.1 0.3 0
 0.2 0.3 0
 0 0.4 0
 0.1 0.4 0
 0.2 0.4 0
 0.3 0.3 0
 0.4 0.3 0
 0.3 0.4 0
 0.4 0.4 0
 0.5 0 0
 0.6 0 0
 0.5 0.1 0
 0.6 0.1 0
 0.5 0.2 0
 0.6 0.2 0
 0.5 0.3 0
 0.6 0.3 0
 0.5 0.4 0
 0.6 0.4 0
 0 0.5 0
 0.1 0.5 0
 0.2 0.5 0
 0 0.6 0
 0.1 0.6 0
 0.2 0.6 0
 0.3 0.5 0
 0.4 0.5 0
 0.3 0.6 0
 0.4 0.6 0
 0.5 0.5 0
 0.6 0.5 0
 0.5 0.6 0
 0.6 0.6 0
 0.7 0 0
 0.8 0 0
 0.7 0.1 0
 0.8 0.1 0
 0.7 0.2 0
 0.8 0.2 0
 0.7 0.3 0
 0.8 0.3 0
 0.7 0.4 0
 0.8 0.4 0
 0.7 0.5 0
 0.8 0.5 0
 0.7 0.6 0
 0.8 0.6 0
 0 0.7 0
 0.1 0.7 0
 0.2 0.7 0
 0 0.8 0
 0.1 0.8 0
 0.2 0.8 0
 0.3 0.7 0
 0.4 0.7 0
 0.3 0.8 0
 0.4 0.8 0
 0.5 0.7 0
 0.6 0.7 0
 0.5 0.8 0
 0.6 0.8 0
 0.7 0.7 0
 0.8 0.7 0
 0.7 0.8 0
 0.8 0.8 0
 0.9 0 0
 1 0 0
 0.9 0.1 0
 1 0.1 0
 0.9 0.2 0
 1 0.2 0
 0.9 0.3 0
 1 0.3 0
 0.9 0.4 0
 1 0.4 0
 0.9 0.5 0
 1 0.5 0
 0.9 0.6 0
 1 0.6 0
 0.9 0.7 0
 1 0.7 0
 0.9 0.8 0
 1 0.8 0
 0 0.9 0
 0.1 0.9 0
 0.2 0.9 0
 0 1 0
 0.1 1 0
 0.2 1 0
 0.3 0.9 0
 0.4 0.9 0
 0.3 1 0
 0.4 1 0
 0.5 0.9 0
 0.6 0.9 0
 0.5 1 0
 0.6 1 0
 0.7 0.9 0
 0.8 0.9 0
 0.7 1 0
 0.8 1 0
 0.9 0.9 0
 1 0.9 0
 0.9 1 0
 1 1 0
 1.1 0 0
 1.2 0 0
 1.1 0.1 0
 1.2 0.1 0
 1.1 0.2 0
 1.2 0.2 0
 1.1 0.3 0
 1.2 0.3 0
 1.1 0.4 0
 1.2 0.4 0
 1.1 0.5 0
 1.2 0.5 0
 1.1 0.6 0
 1.2 0.6 0
 1.1 0.7 0
 1.2 0.7 0
 1.1 0.8 0
 1.2 0.8 0
 1.1 0.9 0
 1.2 0.9 0
 1.1 1 0
 1.2 1 0
 0 1.1 0
 0.1 1.1 0
 0.2 1.1 0
 0 1.2 0
 0.1 1.2 0
 0.2 1.2 0
 0.3 1.1 0
 0.4 1.1 0
 0.3 1.2 0
 0.4 1.2 0
 0.5 1.1 0
 0.6 1.1 0
 0.5 1.2 0
 0.6 1.2 0
 0.7 1.1 0
 0.8 1.1 0
 0.7 1.2 0
 0.8 1.2 0
 0.9 1.1 0
 1 1.1 0
 0.9 1.2 0
 1 1.2 0
 1.1 1.1 0
 1.2 1.1 0
 1.1 1.2 0
 1.2 1.2 0
 1.3 0 0
 1.4 0 0
 1.3 0.1 0
 1.4 0.1 0
 1.3 0.2 0
 1.4 0.2 0
 1.3 0.3 0
 1.4 0.3 0
 1.3 0.4 0
 1.4 0.4 0
 1.3 0.5 0
 1.4 0.5 0
 1.3 0.6 0
 1.4 0.6 0
 1.3 0.7 0
 1.4 0.7 0
 1.3 0.8 0
 1.4 0.8 0
 1.3 0.9 0
 1.4 0.9 0
 1.3 1 0
 1.4 1 0
 1.3 1.1 0
 1.4 1.1 0
 1.3 1.2 0
 1.4 1.2 0
 0 1.3 0
 0.1 1.3 0
 0.2 1.3 0
 0 1.4 0
 0.1 1.4 0
 0.2 1.4 0
 0.3 1.3 0
 0.4 1.3 0
 0.3 1.4 0
 0.4 1.4 0
 0.5 1.3 0
 0.6 1.3 0
 0.5 1.4 0
 0.6 1.4 0
 0.7 1.3 0
 0.8 1.3 0
 0.7 1.4 0
 0.8 1.4 0
 0.9 1.3 0
 1 1.3 0
 0.9 1.4 0
 1 1.4 0
 1.1 1.3 0
 1.2 1.3 0
 1.1 1.4 0
 1.2 1.4 0
 1.3 1.3 0
 1.4 1.3 0
 1.3 1.4 0
 1.4 1.4 0
 1.5 0 0
 1.6 0 0
 1.5 0.1 0
 1.6 0.1 0
 1.5 0.2 0
 1.6 0.2 0
 1.5 0.3 0
 1.6 0.3 0
 1.5 0.4 0
 1.6 0.4 0
 1.5 0.5 0
 1.6 0.5 0
 1.5 0.6 0
 1.6 0.6 0
 1.5 0.7 0
 1.6 0.7 0
 1.5 0.8 0
 1.6 0.8 0
 1.5 0.9 0
 1.6 0.9 0
 1.5 1 0
 1.6 1 0
 1.5 1.1 0
 1.6 1.1 0
 1.5 1.2 0
 1.6 1.2 0
 1.5 1.3 0
 1.6 1.3 0
 1.5 1.4 0
 1.6 1.4 0
 0 1.5 0
 0.1 1.5 0
 0.2 1.5 0
 0 1.6 0
 0.1 1.6 0
 0.2 1.6 0
 0.3 1.5 0
 0.4 1.5 0
 0.3 1.6 0
 0.4 1.6 0
 0.5 1.5 0
 0.6 1.5 0
 0.5 1.6 0
 0.6 1.6 0
 0.7 1.5 0
 0.8 1.5 0
 0.7 1.6 0
 0.8 1.6 0
 0.9 1.5 0
 1 1.5 0
 0.9 1.6 0
 1 1.6 0
 1.1 1.5 0
 1.2 1.5 0
 1.1 1.6 0
 1.2 1.6 0
 1.3 1.5 0
 1.4 1.5 0
 1.3 1.6 0
 1.4 1.6 0
 1.5 1.5 0
 1.6 1.5 0
 1.5 1.6 0
 1.6 1.6 0
 1.7 0 0
 1.8 0 0
 1.7 0.1 0
 1.8 0.1 0
 1.7 0.2 0
 1.8 0.2 0
 1.7 0.3 0
 1.8 0.3 0
 1.7 0.4 0
 1.8 0.4 0
 1.7 0.5 0
 1.8 0.5 0
 1.7 0.6 0
 1.8 0.6 0
 1.7 0.7 0
 1.8 0.7 0
 1.7 0.8 0
 1.8 0.8 0
 1.7 0.9 0
 1.8 0.9 0
 1.7 1 0
 1.8 1 0
 1.7 1.1 0
 1.8 1.1 0
 1.7 1.2 0
 1.8 1.2 0
 1.7 1.3 0
 1.8 1.3 0
 1.7 1.4 0
 1.8 1.4 0
 1.7 1.5 0
 1.8 1.5 0
 1.7 1.6 0
 1.8 1.6 0
 0 1.7 0
 0.1 1.7 0
 0.2 1.7 0
 0 1.8 0
 0.1 1.8 0
 0.2 1.8 0
 0.3 1.7 0
 0.4 1.7 0
 0.3 1.8 0
 0.4 1.8 0
 0.5 1.7 0
 0.6 1.7 0
 0.5 1.8 0
 0.6 1.8 0
 0.7 1.7 0
 0.8 1.7 0
 0.7 1.8 0
 0.8 1.8 0
 0.9 1.7 0
 1 1.7 0
 0.9 1.8 0
 1 1.8 0
 1.1 1.7 0
 1.2 1.7 0
 1.1 1.8 0
 1.2 1.8 0
 1.3 1.7 0
 1.4 1.7 0
 1.3 1.8 0
 1.4 1.8 0
 1.5 1.7 0
 1.6 1.7 0
 1.5 1.8 0
 1.6 1.8 0
 1.7 1.7 0
 1.8 1.7 0
 1.7 1.8 0
 1.8 1.8 0
 1.9 0 0
 2 0 0
 1.9 0.1 0
 2 0.1 0
 1.9 0.2 0
 2 0.2 0
 1.9 0.3 0
 2 0.3 0
 1.9 0.4 0
 2 0.4 0
 1.9 0.5 0
 2 0.5 0
 1.9 0.6 0
 2 0.6 0
 1.9 0.7 0
 2 0.7 0
 1.9 0.8 0
 2 0.8 0
 1.9 0.9 0
 2 0.9 0
 1.9 1 0
 2 1 0
 1.9 1.1 0
 2 1.1 0
 1.9 1.2 0
 2 1.2 0
 1.9 1.3 0
 2 1.3 0
 1.9 1.4 0
 2 1.4 0
 1.9 1.5 0
 2 1.5 0
 1.9 1.6 0
 2 1.6 0
 1.9 1.7 0
 2 1.7 0
 1.9 1.8 0
 2 1.8 0
 0 1.9 0
 0.1 1.9 0
 0.2 1.9 0
 0 2 0
 0.1 2 0
 0.2 2 0
 0.3 1.9 0
 0.4 1.9 0
 0.3 2 0
 0.4 2 0
 0.5 1.9 0
 0.6 1.9 0
 0.5 2 0
 0.6 2 0
 0.7 1.9 0
 0.8 1.9 0
 0.7 2 0
 0.8 2 0
 0.9 1.9 0
 1 1.9 0
 0.9 2 0
 1 2 0
 1.1 1.9 0
 1.2 1.9 0
 1.1 2 0
 1.2 2 0
 1.3 1.9 0
 1.4 1.9 0
 1.3 2 0
 1.4 2 0
 1.5 1.9 0
 1.6 1.9 0
 1.5 2 0
 1.6 2 0
 1.7 1.9 0
 1.8 1.9 0
 1.7 2 0
 1.8 2 0
 1.9 1.9 0
 2 1.9 0
 1.9 2 0
 2 2 0

CELLS 100 1000
 9 0 2 8 6 1 5 7 3 4
 9 2 10 14 8 9 12 13 5 11
 9 10 26 30 14 25 28 29 12 27
 9 26 50 54 30 49 52 53 28 51
 9 50 82 86 54 81 84 85 52 83
 9 82 122 126 86 121 124 125 84 123
 9 122 170 174 126 169 172 173 124 171
 9 170 226 230 174 225 228 229 172 227
 9 226 290 294 230 289 292 293 228 291
 9 290 362 366 294 361 364 365 292 363
 9 6 8 20 18 7 17 19 15 16
 9 8 14 24 20 13 22 23 17 21
 9 14 30 34 24 29 32 33 22 31
 9 30 54 58 34 53 56 57 32 55
 9 54 86 90 58 85 88 89 56 87
 9 86 126 130 90 125 128 129 88 127
 9 126 174 178 130 173 176 177 128 175
 9 174 230 234 178 229 232 233 176 231
 9 230 294 298 234 293 296 297 232 295
 9 294 366 370 298 365 368 369 296 367
 9 18 20 40 38 19 37 39 35 36
 9 20 24 44 40 23 42 43 37 41
 9 24 34 48 44 33 46 47 42 45
 9 34 58 62 48 57 60 61 46 59
 9 58 90 94 62 89 92 93 60 91
 9 90 130 134 94 129 132 133 92 131
 9 130 178 182 134 177 180 181 132 179
 9 178 234 238 182 233 236 237 180 235
 9 234 298 302 238 297 300 301 236 299
 9 298 370 374 302 369 372 373 300 371
 9 38 40 68 66 39 65 67 63 64
 9 40 44 72 68 43 70 71 65 69
 9 44 48 76 72 47 74 75 70 73
 9 48 62 80 76 61 78 79 74 77
 9 62 94 98 80 93 96 97 78 95
 9 94 134 138 98 133 136 137 96 135
 9 134 182 186 138 181 184 185 136 183
 9 182 238 242 186 237 240 241 184 239
 9 238 302 306 242 301 304 305 240 303
 9 302 374 378 306 373 376 377 304 375
 9 66 68 104 102 67 101 103 99 100
 9 68 72 108 104 71 106 107 101 105
 9 72 76 112 108 75 110 111 106 109
 9 76 80 116 112 79 114 115 110 113
 9 80 98 120 116 97 118 119 114 117
 9 98 138 142 120 137 140 141 118 139
 9 138 186 190 142 185 188 189 140 187
 9 186 242 246 190 241 244 245 188 243
 9 242 306 310 246 305 308 309 244 307
 9 306 378 382 310 377 380 381 308 379
 9 102 104 148 146 103 145 147 143 144
 9 104 108 152 148 107 150 151 145 149
 9 108 112 156 152 111 154 155 150 153
 9 112 116 160 156 115 158 159 154 157
 9 116 120 164 160 119 162 163 158 161
 9 120 142 168 164 141 166 167 162 165
 9 142 190 194 168 189 192 193 166 191
 9 190 246 250 194 245 248 249 192 247
 9 246 310 314 250 309 312 313 248 311
 9 310 382 386 314 381 384 385 312 383
 9 146 148 200 198 147 197 199 195 196
 9 148 152 204 200 151 202 203 197 201
 9 152 156 208 204 155 206 207 202 205
 9 156 160 212 208 159 210 211 206 209
 9 160 164 216 212 163 214 215 210 213
 9 164 168 220 216 167 218 219 214 217
 9 168 194 224 220 193 222 223 218 221
 9 194 250 254 224 249 252 253 222 251
 9 250 314 318 254 313 316 317 252 315
 9 314 386 390 318 385 388 389 316 387
 9 198 200 260 258 199 257 259 255 256
 9 200 204 264 260 203 262 263 257 261
 9 204 208 268 264 207 266 267 262 265
 9 208 212 272 268 211 270 271 266 269
 9 212 216 276 272 215 274 275 270 273
 9 216 220 280 276 219 278 279 274 277
 9 220 224 284 280 223 282 283 278 281
 9 224 254 288 284 253 286 287 282 285
 9 254 318 322 288 317 320 321 286 319
 9 318 390 394 322 389 392 393 320 391
 9 258 260 328 326 259 325 327 323 324
 9 260 264 332 328 263 330 331 325 329
 9 264 268 336 332 267 334 335 330 333
 9 268 272 340 336 271 338 339 334 337
 9 272 276 344 340 275 342 343 338 341
 9 276 280 348 344 279 346 347 342 345
 9 280 284 352 348 283 350 351 346 349
 9 284 288 356 352 287 354 355 350 353
 9 288 322 360 356 321 358 359 354 357
 9 322 394 398 360 393 396 397 358 395
 9 326 328 404 402 327 401 403 399 400
 9 328 332 408 404 331 406 407 401 405
 9 332 336 412 408 335 410 411 406 409
 9 336 340 416 412 339 414 415 410 413
 9 340 344 420 416 343 418 419 414 417
 9 344 348 424 420 347 422 423 418 421
 9 348 352 428 424 351 426 427 422 425
 9 352 356 432 428 355 430 431 426 429
 9 356 360 436 432 359 434 435 430 433
 9 360 398 440 436 397 438 439 434 437

CELL_TYPES 100
 28
 28
 28
 28
 28
 28
 28
 28
 28
 28
 28
 28
 28
 28
 28
 28
 28
 28
 28
 28
 28
 28
 28
 28
 28
 28
 28
 28
 28
 28
 28
 28
 28
 28
 28
 28
 28
 28
 28
 28
 28
 28
 28
 28
 28
 28
 28
 28
 28
 28
 28
 28
 28
 28
 28
 28
 28
 28
 28
 28
 28
 28
 28
 28
 28
 28
 28
 28
 28
 28
 28
 28
 28
 28
 28
 28
 28
 28
 28
 28
 28
 28
 28
 28
 28
 28
 28
 28
 28
 28
 28
 28
 28
 28
 28
 28
 28
 28
 28
 28

POINT_DATA 441


VECTORS u float
 -0.133332 0.533333 0 -0.119999 0.533333 0 -0.106666 0.533333 0 -0.133332 0.479999 0 -0.119999 0.479999 0 -0.106666 0.48 0 -0.133332 0.426666 0 -0.119999 0.426666 0 -0.106666 0.426666 0 -0.0933323 0.533333 0 -0.0799989 0.533333 0 -0.0933324 0.48 0 -0.079999 0.48 0 -0.0933325 0.426666 0 -0.0799991 0.426666 0 -0.133333 0.373333 0 -0.119999 0.373333 0 -0.106666 0.373333 0 -0.133333 0.319999 0 -0.119999 0.319999 0 -0.106666 0.32 0 -0.0933326 0.373333 0 -0.0799992 0.373333 0 -0.0933326 0.32 0 -0.0799993 0.32 0 -0.0666656 0.533333 0 -0.0533323 0.533333 0 -0.0666657 0.48 0 -0.0533324 0.48 0 -0.0666658 0.426667 0 -0.0533325 0.426667 0 -0.0666659 0.373333 0 -0.0533326 0.373333 0 -0.066666 0.32 0 -0.0533327 0.32 0 -0.133333 0.266666 0 -0.119999 0.266666 0 -0.106666 0.266666 0 -0.133333 0.213333 0 -0.12 0.213333 0 -0.106666 0.213333 0 -0.0933327 0.266666 0 -0.0799994 0.266666 0 -0.0933328 0.213333 0 -0.0799995 0.213333 0 -0.0666661 0.266667 0 -0.0533327 0.266667 0 -0.0666662 0.213333 0 -0.0533328 0.213333 0 -0.0399989 0.533333 0 -0.0266656 0.533333 0 -0.039999 0.48 0 -0.0266657 0.48 0 -0.0399991 0.426667 0 -0.0266658 0.426667 0 -0.0399992 0.373333 0 -0.0266659 0.373333 0 -0.0399993 0.32 0 -0.026666 0.32 0 -0.0399994 0.266667 0 -0.0266661 0.266667 0 -0.0399995 0.213333 0 -0.0266662 0.213333 0 -0.133333 0.159999 0 -0.12 0.159999 0 -0.106666 0.16 0 -0.133333 0.106666 0 -0.12 0.106666 0 -0.106666 0.106666 0 -0.0933329 0.16 0 -0.0799996 0.16 0 -0.093333 0.106666 0 -0.0799997 0.106666 0 -0.0666663 0.16 0 -0.0533329 0.16 0 -0.0666664 0.106667 0 -0.053333 0.106667 0 -0.0399996 0.16 0 -0.0266663 0.16 0 -0.0399997 0.106667 0 -0.0266664 0.106667 0 -0.0133323 0.533334 0 1.05608e-06 0.533334 0 -0.0133324 0.48 0 9.60201e-07 0.48 0 -0.0133325 0.426667 0 8.64322e-07 0.426667 0 -0.0133326 0.373334 0 7.68444e-07 0.373334 0 -0.0133327 0.32 0 6.72566e-07 0.32 0 -0.0133328 0.266667 0 5.76688e-07 0.266667 0 -0.0133329 0.213334 0 4.8081e-07 0.213334 0 -0.0133329 0.16 0 3.84932e-07 0.16 0 -0.013333 0.106667 0 2.89054e-07 0.106667 0 -0.133333 0.0533327 0 -0.12 0.0533328 0 -0.106666 0.0533329 0 -0.133333 -6.32338e-07 0 -0.12 -5.36459e-07 0 -0.106667 -4.40581e-07 0 -0.0933331 0.053333 0 -0.0799998 0.0533331 0 -0.0933332 -3.44703e-07 0 -0.0799999 -2.48825e-07 0 -0.0666665 0.0533332 0 -0.0533331 0.0533333 0 -0.0666666 -1.52947e-07 0 -0.0533332 -5.70692e-08 0 -0.0399998 0.0533334 0 -0.0266665 0.0533335 0 -0.0399999 3.88089e-08 0 -0.0266666 1.34687e-07 0 -0.0133331 0.0533336 0 1.93176e-07 0.0533337 0 -0.0133332 2.30565e-07 0 9.72979e-08 3.26443e-07 0 0.0133344 0.533334 0 0.0266677 0.533334 0 0.0133343 0.48 0 0.0266676 0.480001 0 0.0133342 0.426667 0 0.0266675 0.426667 0 0.0133341 0.373334 0 0.0266674 0.373334 0 0.013334 0.32 0 0.0266673 0.320001 0 0.0133339 0.266667 0 0.0266672 0.266667 0 0.0133338 0.213334 0 0.0266671 0.213334 0 0.0133337 0.16 0 0.026667 0.160001 0 0.0133336 0.106667 0 0.026667 0.106667 0 0.0133335 0.0533338 0 0.0266669 0.0533339 0 0.0133334 4.22321e-07 0 0.0266668 5.18199e-07 0 -0.133333 -0.053334 0 -0.12 -0.0533339 0 -0.106667 -0.0533338 0 -0.133333 -0.106667 0 -0.12 -0.106667 0 -0.106667 -0.106667 0 -0.0933333 -0.0533337 0 -0.08 -0.0533336 0 -0.0933334 -0.106667 0 -0.0800001 -0.106667 0 -0.0666667 -0.0533335 0 -0.0533333 -0.0533334 0 -0.0666668 -0.106667 0 -0.0533334 -0.106667 0 -0.04 -0.0533333 0 -0.0266667 -0.0533332 0 -0.0400001 -0.106667 0 -0.0266668 -0.106667 0 -0.0133333 -0.0533331 0 1.41981e-09 -0.053333 0 -0.0133334 -0.106666 0 -9.44583e-08 -0.106666 0 0.0133333 -0.0533329 0 0.0266667 -0.0533328 0 0.0133332 -0.106666 0 0.0266666 -0.106666 0 0.040001 0.533334 0 0.0533344 0.533334 0 0.040001 0.480001 0 0.0533343 0.480001 0 0.0400009 0.426667 0 0.0533342 0.426667 0 0.0400008 0.373334 0 0.0533341 0.373334 0 0.0400007 0.320001 0 0.053334 0.320001 0 0.0400006 0.266667 0 0.0533339 0.266667 0 0.0400005 0.213334 0 0.0533338 0.213334 0 0.0400004 0.160001 0 0.0533337 0.160001 0 0.0400003 0.106667 0 0.0533336 0.106667 0 0.0400002 0.0533339 0 0.0533335 0.053334 0 0.0400001 6.14077e-07 0 0.0533334 7.09955e-07 0 0.04 -0.0533327 0 0.0533333 -0.0533326 0 0.0399999 -0.106666 0 0.0533332 -0.106666 0 -0.133334 -0.160001 0 -0.12 -0.160001 0 -0.106667 -0.16 0 -0.133334 -0.213334 0 -0.12 -0.213334 0 -0.106667 -0.213334 0 -0.0933335 -0.16 0 -0.0800002 -0.16 0 -0.0933336 -0.213334 0 -0.0800003 -0.213334 0 -0.0666668 -0.16 0 -0.0533335 -0.16 0 -0.0666669 -0.213333 0 -0.0533336 -0.213333 0 -0.0400002 -0.16 0 -0.0266669 -0.16 0 -0.0400003 -0.213333 0 -0.0266669 -0.213333 0 -0.0133335 -0.16 0 -1.90336e-07 -0.16 0 -0.0133336 -0.213333 0 -2.86214e-07 -0.213333 0 0.0133331 -0.16 0 0.0266665 -0.159999 0 0.013333 -0.213333 0 0.0266664 -0.213333 0 0.0399998 -0.159999 0 0.0533331 -0.159999 0 0.0399997 -0.213333 0 0.053333 -0.213333 0 0.0666677 0.533334 0 0.080001 0.533334 0 0.0666676 0.480001 0 0.0800009 0.480001 0 0.0666675 0.426667 0 0.0800009 0.426668 0 0.0666674 0.373334 0 0.0800008 0.373334 0 0.0666673 0.320001 0 0.0800007 0.320001 0 0.0666672 0.266667 0 0.0800006 0.266668 0 0.0666671 0.213334 0 0.0800005 0.213334 0 0.066667 0.160001 0 0.0800004 0.160001 0 0.0666669 0.106667 0 0.0800003 0.106668 0 0.0666668 0.0533341 0 0.0800002 0.0533342 0 0.0666668 8.05834e-07 0 0.0800001 9.01712e-07 0 0.0666667 -0.0533325 0 0.08 -0.0533324 0 0.0666666 -0.106666 0 0.0799999 -0.106666 0 0.0666665 -0.159999 0 0.0799998 -0.159999 0 0.0666664 -0.213333 0 0.0799997 -0.213332 0 -0.133334 -0.266667 0 -0.12 -0.266667 0 -0.106667 -0.266667 0 -0.133334 -0.320001 0 -0.12 -0.320001 0 -0.106667 -0.32 0 -0.0933337 -0.266667 0 -0.0800004 -0.266667 0 -0.0933338 -0.32 0 -0.0800005 -0.32 0 -0.066667 -0.266667 0 -0.0533337 -0.266667 0 -0.0666671 -0.32 0 -0.0533338 -0.32 0 -0.0400004 -0.266667 0 -0.026667 -0.266667 0 -0.0400005 -0.32 0 -0.0266671 -0.32 0 -0.0133337 -0.266666 0 -3.82093e-07 -0.266666 0 -0.0133338 -0.32 0 -4.77971e-07 -0.32 0 0.0133329 -0.266666 0 0.0266663 -0.266666 0 0.0133329 -0.32 0 0.0266662 -0.319999 0 0.0399996 -0.266666 0 0.0533329 -0.266666 0 0.0399995 -0.319999 0 0.0533328 -0.319999 0 0.0666663 -0.266666 0 0.0799996 -0.266666 0 0.0666662 -0.319999 0 0.0799995 -0.319999 0 0.0933344 0.533334 0 0.106668 0.533334 0 0.0933343 0.480001 0 0.106668 0.480001 0 0.0933342 0.426668 0 0.106668 0.426668 0 0.0933341 0.373334 0 0.106667 0.373334 0 0.093334 0.320001 0 0.106667 0.320001 0 0.0933339 0.266668 0 0.106667 0.266668 0 0.0933338 0.213334 0 0.106667 0.213334 0 0.0933337 0.160001 0 0.106667 0.160001 0 0.0933336 0.106668 0 0.106667 0.106668 0 0.0933335 0.0533343 0 0.106667 0.0533344 0 0.0933334 9.9759e-07 0 0.106667 1.09347e-06 0 0.0933333 -0.0533323 0 0.106667 -0.0533322 0 0.0933332 -0.106666 0 0.106667 -0.106666 0 0.0933331 -0.159999 0 0.106666 -0.159999 0 0.093333 -0.213332 0 0.106666 -0.213332 0 0.0933329 -0.266666 0 0.106666 -0.266666 0 0.0933328 -0.319999 0 0.106666 -0.319999 0 -0.133334 -0.373334 0 -0.120001 -0.373334 0 -0.106667 -0.373334 0 -0.133334 -0.426667 0 -0.120001 -0.426667 0 -0.106667 -0.426667 0 -0.0933339 -0.373334 0 -0.0800006 -0.373334 0 -0.093334 -0.426667 0 -0.0800007 -0.426667 0 -0.0666672 -0.373334 0 -0.0533339 -0.373333 0 -0.0666673 -0.426667 0 -0.053334 -0.426667 0 -0.0400006 -0.373333 0 -0.0266672 -0.373333 0 -0.0400007 -0.426667 0 -0.0266673 -0.426667 0 -0.0133339 -0.373333 0 -5.73849e-07 -0.373333 0 -0.013334 -0.426666 0 -6.69727e-07 -0.426666 0 0.0133328 -0.373333 0 0.0266661 -0.373333 0 0.0133327 -0.426666 0 0.026666 -0.426666 0 0.0399994 -0.373333 0 0.0533327 -0.373333 0 0.0399993 -0.426666 0 0.0533327 -0.426666 0 0.0666661 -0.373333 0 0.0799994 -0.373332 0 0.066666 -0.426666 0 0.0799993 -0.426666 0 0.0933327 -0.373332 0 0.106666 -0.373332 0 0.0933326 -0.426666 0 0.106666 -0.426666 0 0.120001 0.533335 0 0.133334 0.533335 0 0.120001 0.480001 0 0.133334 0.480001 0 0.120001 0.426668 0 0.133334 0.426668 0 0.120001 0.373335 0 0.133334 0.373335 0 0.120001 0.320001 0 0.133334 0.320001 0 0.120001 0.266668 0 0.133334 0.266668 0 0.12 0.213335 0 0.133334 0.213335 0 0.12 0.160001 0 0.133334 0.160001 0 0.12 0.106668 0 0.133334 0.106668 0 0.12 0.0533345 0 0.133334 0.0533346 0 0.12 1.18935e-06 0 0.133333 1.28522e-06 0 0.12 -0.0533321 0 0.133333 -0.053332 0 0.12 -0.106665 0 0.133333 -0.106665 0 0.12 -0.159999 0 0.133333 -0.159999 0 0.12 -0.213332 0 0.133333 -0.213332 0 0.12 -0.266665 0 0.133333 -0.266665 0 0.12 -0.319999 0 0.133333 -0.319999 0 0.119999 -0.373332 0 0.133333 -0.373332 0 0.119999 -0.426665 0 0.133333 -0.426665 0 -0.133334 -0.480001 0 -0.120001 -0.480001 0 -0.106667 -0.48 0 -0.133334 -0.533334 0 -0.120001 -0.533334 0 -0.106668 -0.533334 0 -0.0933341 -0.48 0 -0.0800008 -0.48 0 -0.0933342 -0.533334 0 -0.0800008 -0.533334 0 -0.0666674 -0.48 0 -0.0533341 -0.48 0 -0.0666675 -0.533333 0 -0.0533342 -0.533333 0 -0.0400008 -0.48 0 -0.0266674 -0.48 0 -0.0400009 -0.533333 0 -0.0266675 -0.533333 0 -0.0133341 -0.48 0 -7.65605e-07 -0.48 0 -0.0133342 -0.533333 0 -8.61483e-07 -0.533333 0 0.0133326 -0.48 0 0.0266659 -0.48 0 0.0133325 -0.533333 0 0.0266658 -0.533333 0 0.0399992 -0.479999 0 0.0533326 -0.479999 0 0.0399991 -0.533333 0 0.0533325 -0.533333 0 0.0666659 -0.479999 0 0.0799992 -0.479999 0 0.0666658 -0.533333 0 0.0799991 -0.533332 0 0.0933326 -0.479999 0 0.106666 -0.479999 0 0.0933325 -0.533332 0 0.106666 -0.533332 0 0.119999 -0.479999 0 0.133333 -0.479999 0 0.119999 -0.533332 0 0.133332 -0.533332 0

SCALARS p float 1
LOOKUP_TABLE default
 1.03441e-11 0.0862495 0.172499 1.03427e-11 0.086248 0.172496 1.03413e-11 0.0862466 0.172493 0.189243 0.205987 0.18924 0.205984 0.189237 0.205981 1.03349e-11 0.0862462 0.172492 1.03285e-11 0.0862458 0.172492 0.189238 0.205984 0.18924 0.205988 0.202899 0.19981 0.202885 0.199787 0.202872 0.199763 0.202877 0.199769 0.202881 0.199775 1.03396e-11 0.086247 0.172494 1.03506e-11 0.0862483 0.172497 0.189238 0.205983 0.189237 0.205977 0.202877 0.199772 0.202873 0.199769 0.199802 0.199794 0.199799 0.199811 0.199796 0.199829 0.199797 0.199824 0.199797 0.19982 0.199799 0.199825 0.1998 0.199831 1.03408e-11 0.0862472 0.172494 1.0331e-11 0.0862462 0.172492 0.189235 0.205976 0.189234 0.205975 0.202874 0.199772 0.202875 0.199775 0.199801 0.199829 0.199801 0.199827 0.199958 0.200122 0.199963 0.200115 0.199969 0.200109 0.199968 0.200112 0.199967 0.200115 0.199968 0.200111 0.199969 0.200107 0.199969 0.200109 0.199969 0.200111 1.03348e-11 0.0862462 0.172492 1.03387e-11 0.0862462 0.172492 0.189235 0.205977 0.189236 0.20598 0.202874 0.19977 0.202872 0.199764 0.199798 0.199826 0.199795 0.199825 0.199971 0.200117 0.199974 0.200123 0.199958 0.199794 0.199963 0.199811 0.199969 0.199829 0.199968 0.199824 0.199967 0.19982 0.199968 0.199825 0.199969 0.199831 0.199969 0.199829 0.199969 0.199827 0.199971 0.199826 0.199974 0.199825 1.03427e-11 0.0862462 0.172492 1.03468e-11 0.0862462 0.172492 0.189235 0.205977 0.189234 0.205975 0.202874 0.19977 0.202875 0.199775 0.199798 0.199826 0.199801 0.199827 0.199971 0.200117 0.199969 0.200111 0.199971 0.199826 0.199969 0.199827 0.199802 0.19981 0.199799 0.199787 0.199796 0.199763 0.199797 0.199769 0.199797 0.199775 0.199799 0.199772 0.1998 0.199769 0.199801 0.199772 0.199801 0.199775 0.199798 0.19977 0.199795 0.199764 0.199798 0.19977 0.199801 0.199775 1.03368e-11 0.0862472 0.172494 1.03268e-11 0.0862483 0.172497 0.189235 0.205976 0.189237 0.205977 0.202874 0.199772 0.202873 0.199769 0.199801 0.199829 0.1998 0.199831 0.199969 0.200109 0.199969 0.200107 0.199969 0.199829 0.199969 0.199831 0.199801 0.199772 0.1998 0.199769 0.202899 0.205987 0.202885 0.205984 0.202872 0.205981 0.202877 0.205984 0.202881 0.205988 0.202877 0.205983 0.202873 0.205977 0.202874 0.205976 0.202875 0.205975 0.202874 0.205977 0.202872 0.20598 0.202874 0.205977 0.202875 0.205975 0.202874 0.205976 0.202873 0.205977 1.03375e-11 0.086247 0.172494 1.03482e-11 0.0862458 0.172492 0.189238 0.205983 0.18924 0.205988 0.202877 0.199772 0.202881 0.199775 0.199799 0.199825 0.199797 0.19982 0.199968 0.200111 0.199967 0.200115 0.199968 0.199825 0.199967 0.19982 0.199799 0.199772 0.199797 0.199775 0.202877 0.205983 0.202881 0.205988 0.189243 0.172499 0.18924 0.172496 0.189237 0.172493 0.189238 0.172492 0.18924 0.172492 0.189238 0.172494 0.189237 0.172497 0.189235 0.172494 0.189234 0.172492 0.189235 0.172492 0.189236 0.172492 0.189235 0.172492 0.189234 0.172492 0.189235 0.172494 0.189237 0.172497 0.189238 0.172494 0.18924 0.172492 1.03419e-11 0.0862462 0.172492 1.03357e-11 0.0862466 0.172493 0.189238 0.205984 0.189237 0.205981 0.202877 0.199769 0.202872 0.199763 0.199797 0.199824 0.199796 0.199829 0.199968 0.200112 0.199969 0.200109 0.199968 0.199824 0.199969 0.199829 0.199797 0.199769 0.199796 0.199763 0.202877 0.205984 0.202872 0.205981 0.189238 0.172492 0.189237 0.172493 0.0862495 1.03383e-11 0.086248 1.03384e-11 0.0862466 1.03384e-11 0.0862462 1.03385e-11 0.0862458 1.03387e-11 0.086247 1.03385e-11 0.0862483 1.03383e-11 0.0862472 1.03387e-11 0.0862462 1.03391e-11 0.0862462 1.03389e-11 0.0862462 1.03387e-11 0.0862462 1.03387e-11 0.0862462 1.03387e-11 0.0862472 1.03388e-11 0.0862483 1.0339e-11 0.086247 1.03386e-11 0.0862458 1.03381e-11 0.0862462 1.03383e-11 0.0862466 1.03386e-11 1.03343e-11 0.086248 0.172496 1.03329e-11 0.0862495 0.172499 0.18924 0.205984 0.189243 0.205987 0.202885 0.199787 0.202899 0.19981 0.199799 0.199811 0.199802 0.199794 0.199963 0.200115 0.199958 0.200122 0.199963 0.199811 0.199958 0.199794 0.199799 0.199787 0.199802 0.19981 0.202885 0.205984 0.202899 0.205987 0.18924 0.172496 0.189243 0.172499 0.086248 1.03386e-11 0.0862495 1.03387e-11
